From PySCF
GAUSSIAN              8 MOL ORBITALS     42 PRIMITIVES        6 NUCLEI
  H    1    (CENTRE  1)   0.00000000  0.00000000  0.00000000  CHARGE = 1.0
  H    2    (CENTRE  2)   1.88972612  0.00000000  0.00000000  CHARGE = 1.0
  H    3    (CENTRE  3)   3.77945225  0.00000000  0.00000000  CHARGE = 1.0
  H    4    (CENTRE  4)   5.66917837  0.00000000  0.00000000  CHARGE = 1.0
  H    5    (CENTRE  5)   7.55890450  0.00000000  0.00000000  CHARGE = 1.0
  H    6    (CENTRE  6)   9.44863062  0.00000000  0.00000000  CHARGE = 1.0
CENTRE ASSIGNMENTS    1  1  1  1  1  1  1  2  2  2  2  2  2  2  3  3  3  3  3  3
CENTRE ASSIGNMENTS    3  4  4  4  4  4  4  4  5  5  5  5  5  5  5  6  6  6  6  6
CENTRE ASSIGNMENTS    6  6
TYPE ASSIGNMENTS      1  1  1  1  2  3  4  1  1  1  1  2  3  4  1  1  1  1  2  3
TYPE ASSIGNMENTS      4  1  1  1  1  2  3  4  1  1  1  1  2  3  4  1  1  1  1  2
TYPE ASSIGNMENTS      3  4
EXPONENTS  1.3010701E+01 1.9622572E+00 4.4453796E-01 1.2194962E-01 8.0000000E-01
EXPONENTS  8.0000000E-01 8.0000000E-01 1.3010701E+01 1.9622572E+00 4.4453796E-01
EXPONENTS  1.2194962E-01 8.0000000E-01 8.0000000E-01 8.0000000E-01 1.3010701E+01
EXPONENTS  1.9622572E+00 4.4453796E-01 1.2194962E-01 8.0000000E-01 8.0000000E-01
EXPONENTS  8.0000000E-01 1.3010701E+01 1.9622572E+00 4.4453796E-01 1.2194962E-01
EXPONENTS  8.0000000E-01 8.0000000E-01 8.0000000E-01 1.3010701E+01 1.9622572E+00
EXPONENTS  4.4453796E-01 1.2194962E-01 8.0000000E-01 8.0000000E-01 8.0000000E-01
EXPONENTS  1.3010701E+01 1.9622572E+00 4.4453796E-01 1.2194962E-01 8.0000000E-01
EXPONENTS  8.0000000E-01 8.0000000E-01
MO  1                     OCC NO =   2.00000000 ORB. ENERGY =   1.00000000
  3.56536660E-02  6.04842897E-02  6.88581809E-02  1.02156398E-02 -1.08826154E-03
 -4.58371409E-17 -8.64843712E-19  3.56536663E-02  6.04842902E-02  6.88581814E-02
  1.02156400E-02  1.08826180E-03  1.78319815E-18  1.75426658E-18  3.56536664E-02
  6.04842903E-02  6.88581815E-02  1.02156398E-02 -1.08826175E-03  7.46489865E-19
 -6.16997580E-19  3.56536664E-02  6.04842903E-02  6.88581815E-02  1.02156398E-02
  1.08826174E-03  1.32646454E-19 -4.05631684E-20  3.56536663E-02  6.04842902E-02
  6.88581814E-02  1.02156400E-02 -1.08826180E-03  1.29991871E-18 -5.63448619E-19
  3.56536660E-02  6.04842897E-02  6.88581809E-02  1.02156398E-02  1.08826154E-03
 -1.38641154E-17  1.12927339E-17
MO  2                     OCC NO =   2.00000000 ORB. ENERGY =   1.00000000
  3.56843723E-02  6.05363811E-02  6.89174842E-02  1.03452016E-02 -1.02102750E-03
  4.00455217E-17  6.93962679E-18  3.53564195E-02  5.99800290E-02  6.82841066E-02
  9.24548949E-03  6.87727898E-04 -9.09400876E-18 -8.40537414E-18  3.44934432E-02
  5.85160418E-02  6.66174342E-02  1.19607284E-02 -1.61915197E-03  1.61769754E-18
  8.08236628E-18  3.29021599E-02  5.58165259E-02  6.35441774E-02  6.62474044E-03
  1.92525825E-06  7.05518959E-19  2.19220157E-18  3.09518425E-02  5.25079302E-02
  5.97775153E-02  1.27611514E-02 -2.10693375E-03  2.01162039E-18  2.89887179E-19
  2.82056721E-02  4.78492182E-02  5.44738168E-02  3.55252646E-03 -6.84008727E-04
  3.42955035E-18  5.62634844E-18
MO  3                     OCC NO =   2.00000000 ORB. ENERGY =   1.00000000
  3.57796989E-02  6.06980969E-02  6.91015891E-02  1.07304802E-02 -9.43501346E-04
 -4.54228093E-17  1.44141165E-17  3.44542419E-02  5.84495393E-02  6.65417246E-02
  7.96621790E-03 -3.37785156E-04  6.23512279E-17 -3.54630769E-17  3.11091723E-02
  5.27748308E-02  6.00813676E-02  1.38273467E-02 -3.18877074E-03 -3.84837152E-18
 -3.44010518E-18  2.50124680E-02  4.24321403E-02  4.83067588E-02  1.11257179E-03
 -2.70476267E-03  2.81905577E-18  1.51544165E-18  1.81029678E-02  3.07105908E-02
  3.49623915E-02  1.32191869E-02 -4.57961141E-03  4.87036018E-18 -2.09279982E-20
  8.86862329E-03  1.50450835E-02  1.71280358E-02 -6.03918687E-03 -4.34700131E-03
  3.11086755E-18  8.66120655E-19
MO  4                     OCC NO =   2.00000000 ORB. ENERGY =   1.00000000
  3.59467947E-02  6.09815648E-02  6.94243024E-02  1.13919770E-02 -9.24886924E-04
 -1.31676618E-19 -7.73938693E-17  3.29445924E-02  5.58885101E-02  6.36261276E-02
  7.23237065E-03 -1.80540544E-03  3.37980254E-18  6.80350651E-17  2.57139865E-02
  4.36222240E-02  4.96616065E-02  1.39728395E-02 -5.47765673E-03 -1.21899942E-18
  1.00368188E-17  1.31218289E-02  2.22603897E-02  2.53422822E-02 -3.47382437E-03
 -5.97402718E-03  1.46634574E-18 -3.99892438E-18  4.18273435E-04  7.09575604E-04
  8.07814484E-04  8.36860222E-03 -6.82168932E-03  4.47296324E-18 -8.89807956E-19
 -1.43875240E-02 -2.44075650E-02 -2.77867283E-02 -1.21451001E-02 -6.64314484E-03
  9.39365849E-18  8.26751754E-18
MO  5                     OCC NO =   2.00000000 ORB. ENERGY =   1.00000000
  1.21414025E-02  2.05971557E-02  2.34487778E-02 -5.82220246E-03  1.15513009E-02
 -1.55904713E-16 -9.43950312E-17  3.69966468E-02  6.27625755E-02  7.14518894E-02
  1.99033452E-02  9.60929292E-03 -2.74221202E-17  3.07207166E-17  4.91380116E-02
  8.33596672E-02  9.49005943E-02  1.40811374E-02  1.94199948E-03  1.99654128E-16
  4.92410355E-18  4.91379965E-02  8.33596414E-02  9.49005650E-02  1.40811217E-02
 -1.94201239E-03 -1.17307143E-17 -7.70338792E-19  3.69966094E-02  6.27625121E-02
  7.14518171E-02  1.99033402E-02 -9.60930115E-03  3.00545888E-19 -1.37799060E-18
  1.21413500E-02  2.05970665E-02  2.34486763E-02 -5.82222321E-03 -1.15513056E-02
  1.37869721E-17  1.42236688E-17
MO  6                     OCC NO =   2.00000000 ORB. ENERGY =   1.00000000
  3.59467947E-02  6.09815648E-02  6.94243024E-02  1.13919770E-02 -9.24886924E-04
 -1.15224288E-16  1.96292739E-17  3.29445924E-02  5.58885101E-02  6.36261276E-02
  7.23237065E-03 -1.80540544E-03 -2.14092426E-17  4.64463567E-17  2.57139865E-02
  4.36222240E-02  4.96616065E-02  1.39728395E-02 -5.47765673E-03 -1.07335444E-17
  7.96055915E-18  1.31218289E-02  2.22603897E-02  2.53422822E-02 -3.47382437E-03
 -5.97402718E-03 -6.12524944E-19  8.90865616E-19  4.18273435E-04  7.09575604E-04
  8.07814484E-04  8.36860222E-03 -6.82168932E-03  1.70745795E-18 -1.24384158E-18
 -1.43875240E-02 -2.44075650E-02 -2.77867283E-02 -1.21451001E-02 -6.64314484E-03
  1.99221265E-18 -7.75880538E-18
MO  7                     OCC NO =   2.00000000 ORB. ENERGY =   1.00000000
  3.57796989E-02  6.06980969E-02  6.91015891E-02  1.07304802E-02 -9.43501346E-04
  7.00878626E-17 -8.93790199E-18  3.44542419E-02  5.84495393E-02  6.65417246E-02
  7.96621790E-03 -3.37785156E-04 -1.45766160E-17  1.72137585E-17  3.11091723E-02
  5.27748308E-02  6.00813676E-02  1.38273467E-02 -3.18877074E-03 -3.76675100E-18
 -3.85472962E-19  2.50124680E-02  4.24321403E-02  4.83067588E-02  1.11257179E-03
 -2.70476267E-03 -7.50146674E-19  4.50430896E-19  1.81029678E-02  3.07105908E-02
  3.49623915E-02  1.32191869E-02 -4.57961141E-03  3.51044816E-19  1.08542472E-18
  8.86862329E-03  1.50450835E-02  1.71280358E-02 -6.03918687E-03 -4.34700131E-03
 -7.88615199E-18 -6.99589027E-18
MO  8                     OCC NO =   2.00000000 ORB. ENERGY =   1.00000000
  3.56843723E-02  6.05363811E-02  6.89174842E-02  1.03452016E-02 -1.02102750E-03
  1.47389683E-17 -1.05166972E-16  3.53564195E-02  5.99800290E-02  6.82841066E-02
  9.24548949E-03  6.87727898E-04 -1.29716829E-18  1.18425676E-18  3.44934432E-02
  5.85160418E-02  6.66174342E-02  1.19607284E-02 -1.61915197E-03 -6.63532602E-18
  2.18261887E-18  3.29021599E-02  5.58165259E-02  6.35441774E-02  6.62474044E-03
  1.92525825E-06 -1.05998044E-19 -9.14992911E-19  3.09518425E-02  5.25079302E-02
  5.97775153E-02  1.27611514E-02 -2.10693375E-03  7.35048144E-19  3.64895068E-19
  2.82056721E-02  4.78492182E-02  5.44738168E-02  3.55252646E-03 -6.84008727E-04
 -1.05422144E-17 -1.94955360E-19
END DATA
RHF      ENERGY =        0.0000000000   VIRIAL(-V/T)  =   0.00000000
