From PySCF
GAUSSIAN              8 MOL ORBITALS     70 PRIMITIVES       10 NUCLEI
  H    1    (CENTRE  1)   0.00000000  0.00000000  0.00000000  CHARGE = 1.0
  H    2    (CENTRE  2)   1.88972612  0.00000000  0.00000000  CHARGE = 1.0
  H    3    (CENTRE  3)   3.77945225  0.00000000  0.00000000  CHARGE = 1.0
  H    4    (CENTRE  4)   5.66917837  0.00000000  0.00000000  CHARGE = 1.0
  H    5    (CENTRE  5)   7.55890450  0.00000000  0.00000000  CHARGE = 1.0
  H    6    (CENTRE  6)   9.44863062  0.00000000  0.00000000  CHARGE = 1.0
  H    7    (CENTRE  7)  11.33835675  0.00000000  0.00000000  CHARGE = 1.0
  H    8    (CENTRE  8)  13.22808287  0.00000000  0.00000000  CHARGE = 1.0
  H    9    (CENTRE  9)  15.11780900  0.00000000  0.00000000  CHARGE = 1.0
  H    10   (CENTRE 10)  17.00753512  0.00000000  0.00000000  CHARGE = 1.0
CENTRE ASSIGNMENTS    1  1  1  1  1  1  1  2  2  2  2  2  2  2  3  3  3  3  3  3
CENTRE ASSIGNMENTS    3  4  4  4  4  4  4  4  5  5  5  5  5  5  5  6  6  6  6  6
CENTRE ASSIGNMENTS    6  6  7  7  7  7  7  7  7  8  8  8  8  8  8  8  9  9  9  9
CENTRE ASSIGNMENTS    9  9  9 10 10 10 10 10 10 10
TYPE ASSIGNMENTS      1  1  1  1  2  3  4  1  1  1  1  2  3  4  1  1  1  1  2  3
TYPE ASSIGNMENTS      4  1  1  1  1  2  3  4  1  1  1  1  2  3  4  1  1  1  1  2
TYPE ASSIGNMENTS      3  4  1  1  1  1  2  3  4  1  1  1  1  2  3  4  1  1  1  1
TYPE ASSIGNMENTS      2  3  4  1  1  1  1  2  3  4
EXPONENTS  1.3010701E+01 1.9622572E+00 4.4453796E-01 1.2194962E-01 8.0000000E-01
EXPONENTS  8.0000000E-01 8.0000000E-01 1.3010701E+01 1.9622572E+00 4.4453796E-01
EXPONENTS  1.2194962E-01 8.0000000E-01 8.0000000E-01 8.0000000E-01 1.3010701E+01
EXPONENTS  1.9622572E+00 4.4453796E-01 1.2194962E-01 8.0000000E-01 8.0000000E-01
EXPONENTS  8.0000000E-01 1.3010701E+01 1.9622572E+00 4.4453796E-01 1.2194962E-01
EXPONENTS  8.0000000E-01 8.0000000E-01 8.0000000E-01 1.3010701E+01 1.9622572E+00
EXPONENTS  4.4453796E-01 1.2194962E-01 8.0000000E-01 8.0000000E-01 8.0000000E-01
EXPONENTS  1.3010701E+01 1.9622572E+00 4.4453796E-01 1.2194962E-01 8.0000000E-01
EXPONENTS  8.0000000E-01 8.0000000E-01 1.3010701E+01 1.9622572E+00 4.4453796E-01
EXPONENTS  1.2194962E-01 8.0000000E-01 8.0000000E-01 8.0000000E-01 1.3010701E+01
EXPONENTS  1.9622572E+00 4.4453796E-01 1.2194962E-01 8.0000000E-01 8.0000000E-01
EXPONENTS  8.0000000E-01 1.3010701E+01 1.9622572E+00 4.4453796E-01 1.2194962E-01
EXPONENTS  8.0000000E-01 8.0000000E-01 8.0000000E-01 1.3010701E+01 1.9622572E+00
EXPONENTS  4.4453796E-01 1.2194962E-01 8.0000000E-01 8.0000000E-01 8.0000000E-01
MO  1                     OCC NO =   2.00000000 ORB. ENERGY =   1.00000000
  2.76176704E-02  4.68517088E-02  5.33382050E-02  7.91269465E-03 -8.25848062E-04
 -2.05970359E-16 -1.78062892E-16  2.76176704E-02  4.68517088E-02  5.33382050E-02
  7.91269478E-03  8.25848045E-04  1.22685591E-16 -1.71643572E-18  2.76176704E-02
  4.68517089E-02  5.33382050E-02  7.91269465E-03 -8.25848043E-04 -3.66134554E-19
  5.65734669E-18  2.76176704E-02  4.68517089E-02  5.33382050E-02  7.91269477E-03
  8.25848048E-04  2.22507195E-18  2.43450384E-18  2.76176704E-02  4.68517089E-02
  5.33382050E-02  7.91269469E-03 -8.25848053E-04 -7.20447838E-18  6.09667085E-19
  2.76176704E-02  4.68517089E-02  5.33382050E-02  7.91269468E-03  8.25848053E-04
 -1.80736345E-18  2.58637568E-19  2.76176704E-02  4.68517089E-02  5.33382050E-02
  7.91269477E-03 -8.25848049E-04  6.94786708E-18 -5.91058786E-19  2.76176704E-02
  4.68517089E-02  5.33382050E-02  7.91269465E-03  8.25848043E-04 -1.45688426E-18
 -3.69915140E-19  2.76176704E-02  4.68517088E-02  5.33382050E-02  7.91269478E-03
 -8.25848046E-04  6.51768611E-20  9.32839186E-19  2.76176704E-02  4.68517088E-02
  5.33382050E-02  7.91269465E-03  8.25848062E-04 -1.26570549E-17 -4.78342029E-18
MO  2                     OCC NO =   2.00000000 ORB. ENERGY =   1.00000000
  2.76261745E-02  4.68661355E-02  5.33546289E-02  7.94896415E-03 -8.03786847E-04
 -7.40733920E-17  3.58774572E-17  2.75352503E-02  4.67118881E-02  5.31790264E-02
  7.59918467E-03  7.09989397E-04  6.90600209E-17  1.21545555E-16  2.72921167E-02
  4.62994267E-02  5.27094607E-02  8.48820983E-03 -9.73027890E-04 -3.13349610E-17
  2.26703764E-18  2.68458531E-02  4.55423675E-02  5.18475887E-02  6.77146147E-03
  5.12662011E-04  2.41667411E-18 -7.75049058E-18  2.62860365E-02  4.45926723E-02
  5.07664107E-02  8.81844764E-03 -1.11830979E-03 -9.55717116E-18 -1.64284285E-19
  2.54954219E-02  4.32514425E-02  4.92394912E-02  5.77700235E-03  3.02711185E-04
 -4.90850769E-18 -3.45960479E-20  2.46327067E-02  4.17878983E-02  4.75733232E-02
  8.93154605E-03 -1.23605517E-03  4.19863544E-18 -6.26151260E-19  2.35172088E-02
  3.98955235E-02  4.54189540E-02  4.64029431E-03  8.53065915E-05 -4.16515558E-18
 -4.58852429E-19  2.23728380E-02  3.79541676E-02  4.32088225E-02  8.82472008E-03
 -1.32336477E-03 -2.66902400E-18  4.93831494E-19  2.09599239E-02  3.55572443E-02
  4.04800514E-02  3.38932685E-03 -1.34198507E-04 -1.61223400E-17 -1.35739394E-17
MO  3                     OCC NO =   2.00000000 ORB. ENERGY =   1.00000000
  2.76520421E-02  4.69100183E-02  5.34045872E-02  8.05646417E-03 -7.60116546E-04
 -3.92323946E-17 -1.41254004E-16  2.72859161E-02  4.62889077E-02  5.26974854E-02
  6.95572433E-03  3.90874517E-04  1.72629809E-16 -1.53660201E-16  2.63275020E-02
  4.46630161E-02  5.08464934E-02  9.60384363E-03 -1.42224338E-03  4.57216238E-17
 -3.59037109E-18  2.45642416E-02  4.16717515E-02  4.74410961E-02  4.30268790E-03
 -3.56023528E-04  6.37301255E-17  1.44061108E-17  2.24258425E-02  3.80440866E-02
  4.33111905E-02  1.02111320E-02 -1.94515114E-03 -7.70908868E-18  3.98418662E-18
  1.94380481E-02  3.29754738E-02  3.75408416E-02  1.22847436E-03 -1.06807151E-03
 -8.44849671E-18  8.46295801E-19  1.63289854E-02  2.77011369E-02  3.15362866E-02
  9.81888361E-03 -2.27765394E-03  5.91054290E-19 -5.40677004E-19  1.24091229E-02
  2.10513271E-02  2.39658281E-02 -1.96599077E-03 -1.67556923E-03 -6.26805545E-18
 -3.28096389E-19  8.63373332E-03  1.46466068E-02  1.66743911E-02  8.46549444E-03
 -2.38720412E-03 -6.43107634E-18  4.73022499E-21  4.16550634E-03  7.06652977E-03
  8.04487227E-03 -4.96801101E-03 -2.11905053E-03 -6.65310625E-18 -1.40243345E-18
MO  4                     OCC NO =   2.00000000 ORB. ENERGY =   1.00000000
  2.76962246E-02  4.69849712E-02  5.34899172E-02  8.23502313E-03 -7.24260471E-04
  2.16397062E-16 -4.04926771E-17  2.68673791E-02  4.55788850E-02  5.18891620E-02
  6.36761914E-03 -8.68483553E-05  1.12818055E-16 -7.53539076E-17  2.47510515E-02
  4.19886631E-02  4.78018833E-02  1.04617749E-02 -2.15818852E-03  3.79594386E-17
 -6.90560763E-17  2.08850666E-02  3.54302533E-02  4.03354788E-02  1.75163958E-03
 -1.62506732E-03 -2.66770486E-17  2.88067558E-17  1.64104721E-02  2.78393743E-02
  3.16936625E-02  1.04079962E-02 -3.12165966E-03 -1.66776703E-17  8.12104568E-18
  1.03500820E-02  1.75582886E-02  1.99891876E-02 -3.24617457E-03 -2.80904282E-03
 -6.88749835E-18 -2.73633825E-19  4.49262399E-03  7.62146509E-03  8.67663692E-03
  8.08541016E-03 -3.40464971E-03 -4.71157827E-18 -6.07735567E-19 -2.44108541E-03
 -4.14115387E-03 -4.71448575E-03 -7.53636496E-03 -3.38068364E-03 -6.96796120E-18
 -3.88894910E-19 -8.40455759E-03 -1.42578240E-02 -1.62317824E-02  4.00031017E-03
 -2.94547056E-03 -7.16845339E-18 -2.39529981E-19 -1.47001280E-02 -2.49378789E-02
 -2.83904627E-02 -1.01837261E-02 -3.21537954E-03 -2.67816000E-19 -1.16495201E-18
MO  5                     OCC NO =   2.00000000 ORB. ENERGY =   1.00000000
  5.70969678E-03  9.68615553E-03  1.10271783E-02 -7.56261397E-03  5.91228160E-03
 -4.81484961E-17  2.62818044E-17  1.82224794E-02  3.09133350E-02  3.51932051E-02
  1.39536260E-02  5.91703493E-03  2.57355065E-16  3.94876351E-17  2.74503401E-02
  4.65678430E-02  5.30150387E-02  1.71512470E-03  3.64865287E-03 -2.68171422E-17
  4.33007280E-17  3.51824231E-02  5.96848546E-02  6.79480661E-02  1.50107569E-02
  3.66109275E-03  9.01542580E-17  1.54706594E-18  3.87058865E-02  6.56621973E-02
  7.47529561E-02  1.03377440E-02 -8.63727672E-06  2.36695812E-18 -5.95765159E-18
  3.87038770E-02  6.56587884E-02  7.47490753E-02  1.03342887E-02  6.73758928E-06
 -2.29513964E-18 -3.14607292E-18  3.51770998E-02  5.96758240E-02  6.79377852E-02
  1.50116966E-02 -3.66262825E-03  6.09319316E-18 -1.04525459E-18  2.74417654E-02
  4.65532966E-02  5.29984784E-02  1.71047358E-03 -3.65019113E-03 -4.98582663E-18
 -4.90470804E-19  1.82118566E-02  3.08953141E-02  3.51726893E-02  1.39516912E-02
 -5.91761973E-03 -8.26431735E-18  7.78197417E-19  5.69783213E-03  9.66602786E-03
  1.10042641E-02 -7.56668432E-03 -5.91287087E-03 -6.22350270E-18 -6.38205699E-18
MO  6                     OCC NO =   2.00000000 ORB. ENERGY =   1.00000000
  2.76962246E-02  4.69849712E-02  5.34899172E-02  8.23502313E-03 -7.24260471E-04
 -4.03996318E-17  3.84308719E-17  2.68673791E-02  4.55788850E-02  5.18891620E-02
  6.36761914E-03 -8.68483553E-05 -7.69467448E-17 -2.87919786E-17  2.47510515E-02
  4.19886631E-02  4.78018833E-02  1.04617749E-02 -2.15818852E-03 -6.21472470E-17
 -1.31215787E-16  2.08850666E-02  3.54302533E-02  4.03354788E-02  1.75163958E-03
 -1.62506732E-03  1.78270851E-18  3.04638979E-17  1.64104721E-02  2.78393743E-02
  3.16936625E-02  1.04079962E-02 -3.12165966E-03 -7.05139259E-18  1.59849957E-18
  1.03500820E-02  1.75582886E-02  1.99891876E-02 -3.24617457E-03 -2.80904282E-03
 -2.49068343E-19 -1.59206560E-19  4.49262399E-03  7.62146509E-03  8.67663692E-03
  8.08541016E-03 -3.40464971E-03 -2.35313831E-19 -2.34654224E-19 -2.44108541E-03
 -4.14115387E-03 -4.71448575E-03 -7.53636496E-03 -3.38068364E-03 -3.44255336E-19
 -8.70109181E-20 -8.40455759E-03 -1.42578240E-02 -1.62317824E-02  4.00031017E-03
 -2.94547056E-03  1.80486335E-18 -3.34516932E-19 -1.47001280E-02 -2.49378789E-02
 -2.83904627E-02 -1.01837261E-02 -3.21537954E-03  1.05816721E-17 -2.86683215E-18
MO  7                     OCC NO =   2.00000000 ORB. ENERGY =   1.00000000
  2.76520421E-02  4.69100183E-02  5.34045872E-02  8.05646417E-03 -7.60116546E-04
  1.00187344E-16 -2.92360705E-16  2.72859161E-02  4.62889077E-02  5.26974854E-02
  6.95572433E-03  3.90874517E-04  1.06719445E-16 -9.03515203E-18  2.63275020E-02
  4.46630161E-02  5.08464934E-02  9.60384363E-03 -1.42224338E-03 -6.16445290E-17
  3.09972525E-17  2.45642416E-02  4.16717515E-02  4.74410961E-02  4.30268790E-03
 -3.56023528E-04  8.93135855E-19  7.01153846E-19  2.24258425E-02  3.80440866E-02
  4.33111905E-02  1.02111320E-02 -1.94515114E-03 -3.83345663E-18 -3.03714547E-18
  1.94380481E-02  3.29754738E-02  3.75408416E-02  1.22847436E-03 -1.06807151E-03
  3.97912664E-19  1.02270972E-18  1.63289854E-02  2.77011369E-02  3.15362866E-02
  9.81888361E-03 -2.27765394E-03  3.24651665E-18 -1.40497448E-19  1.24091229E-02
  2.10513271E-02  2.39658281E-02 -1.96599077E-03 -1.67556923E-03  5.44585803E-19
 -1.22646497E-19  8.63373332E-03  1.46466068E-02  1.66743911E-02  8.46549444E-03
 -2.38720412E-03  1.58621549E-18 -2.04155182E-19  4.16550634E-03  7.06652977E-03
  8.04487227E-03 -4.96801101E-03 -2.11905053E-03  3.76764220E-18  8.42924210E-19
MO  8                     OCC NO =   2.00000000 ORB. ENERGY =   1.00000000
  2.76261745E-02  4.68661355E-02  5.33546289E-02  7.94896415E-03 -8.03786847E-04
 -2.85317385E-16  2.33037026E-17  2.75352503E-02  4.67118881E-02  5.31790264E-02
  7.59918467E-03  7.09989397E-04  2.01113313E-16 -8.87474802E-17  2.72921167E-02
  4.62994267E-02  5.27094607E-02  8.48820983E-03 -9.73027890E-04 -6.58567573E-17
  1.04402538E-16  2.68458531E-02  4.55423675E-02  5.18475887E-02  6.77146147E-03
  5.12662011E-04  1.66390656E-17  1.50199824E-17  2.62860365E-02  4.45926723E-02
  5.07664107E-02  8.81844764E-03 -1.11830979E-03 -4.79915636E-18  1.54584825E-18
  2.54954219E-02  4.32514425E-02  4.92394912E-02  5.77700235E-03  3.02711185E-04
 -1.47128738E-18 -8.19961918E-19  2.46327067E-02  4.17878983E-02  4.75733232E-02
  8.93154605E-03 -1.23605517E-03  6.43854529E-18 -6.71205318E-19  2.35172088E-02
  3.98955235E-02  4.54189540E-02  4.64029431E-03  8.53065915E-05  7.38036155E-20
 -2.76592275E-19  2.23728380E-02  3.79541676E-02  4.32088225E-02  8.82472008E-03
 -1.32336477E-03  7.23844358E-19  1.43038585E-18  2.09599239E-02  3.55572443E-02
  4.04800514E-02  3.38932685E-03 -1.34198507E-04  3.42139217E-18 -8.99837176E-18
END DATA
RHF      ENERGY =        0.0000000000   VIRIAL(-V/T)  =   0.00000000
