From PySCF
GAUSSIAN              3 MOL ORBITALS     14 PRIMITIVES        2 NUCLEI
  H    1    (CENTRE  1)   0.00000000  0.00000000  0.00000000  CHARGE = 1.0
  H    2    (CENTRE  2)   1.88972612  0.00000000  0.00000000  CHARGE = 1.0
CENTRE ASSIGNMENTS    1  1  1  1  1  1  1  2  2  2  2  2  2  2
TYPE ASSIGNMENTS      1  1  1  1  2  3  4  1  1  1  1  2  3  4
EXPONENTS  1.3010701E+01 1.9622572E+00 4.4453796E-01 1.2194962E-01 8.0000000E-01
EXPONENTS  8.0000000E-01 8.0000000E-01 1.3010701E+01 1.9622572E+00 4.4453796E-01
EXPONENTS  1.2194962E-01 8.0000000E-01 8.0000000E-01 8.0000000E-01
MO  1                     OCC NO =   2.00000000 ORB. ENERGY =   1.00000000
  6.20911139E-02  1.05333822E-01  1.19917014E-01  1.74651944E-02  7.62828145E-12
  5.29943729E-18  1.59999148E-19  6.20911139E-02  1.05333822E-01  1.19917014E-01
  1.74651944E-02 -7.86024857E-12 -4.47854520E-18  1.60766222E-19
MO  2                     OCC NO =   2.00000000 ORB. ENERGY =   1.00000000
  6.60737265E-02  1.12090084E-01  1.27608662E-01  3.69994582E-02  2.98938905E-12
 -3.13203516E-17 -7.70534388E-18  3.30368633E-02  5.60450420E-02  6.38043310E-02
  1.84997292E-02 -2.37375286E-02 -6.25550416E-18 -2.30238618E-19
MO  3                     OCC NO =   2.00000000 ORB. ENERGY =   1.00000000
  6.60737265E-02  1.12090084E-01  1.27608662E-01  3.69994582E-02  3.00002550E-12
 -1.54376948E-18 -1.08851933E-18  3.30368633E-02  5.60450420E-02  6.38043310E-02
  1.84997292E-02 -2.37375286E-02 -1.07570539E-17  9.59653052E-19
END DATA
RHF      ENERGY =        0.0000000000   VIRIAL(-V/T)  =   0.00000000
