From PySCF
GAUSSIAN              6 MOL ORBITALS     42 PRIMITIVES        6 NUCLEI
  H    1    (CENTRE  1)   0.00000000  0.00000000  0.00000000  CHARGE = 1.0
  H    2    (CENTRE  2)   1.88972612  0.00000000  0.00000000  CHARGE = 1.0
  H    3    (CENTRE  3)   3.77945225  0.00000000  0.00000000  CHARGE = 1.0
  H    4    (CENTRE  4)   5.66917837  0.00000000  0.00000000  CHARGE = 1.0
  H    5    (CENTRE  5)   7.55890450  0.00000000  0.00000000  CHARGE = 1.0
  H    6    (CENTRE  6)   9.44863062  0.00000000  0.00000000  CHARGE = 1.0
CENTRE ASSIGNMENTS    1  1  1  1  1  1  1  2  2  2  2  2  2  2  3  3  3  3  3  3
CENTRE ASSIGNMENTS    3  4  4  4  4  4  4  4  5  5  5  5  5  5  5  6  6  6  6  6
CENTRE ASSIGNMENTS    6  6
TYPE ASSIGNMENTS      1  1  1  1  2  3  4  1  1  1  1  2  3  4  1  1  1  1  2  3
TYPE ASSIGNMENTS      4  1  1  1  1  2  3  4  1  1  1  1  2  3  4  1  1  1  1  2
TYPE ASSIGNMENTS      3  4
EXPONENTS  1.3010701E+01 1.9622572E+00 4.4453796E-01 1.2194962E-01 8.0000000E-01
EXPONENTS  8.0000000E-01 8.0000000E-01 1.3010701E+01 1.9622572E+00 4.4453796E-01
EXPONENTS  1.2194962E-01 8.0000000E-01 8.0000000E-01 8.0000000E-01 1.3010701E+01
EXPONENTS  1.9622572E+00 4.4453796E-01 1.2194962E-01 8.0000000E-01 8.0000000E-01
EXPONENTS  8.0000000E-01 1.3010701E+01 1.9622572E+00 4.4453796E-01 1.2194962E-01
EXPONENTS  8.0000000E-01 8.0000000E-01 8.0000000E-01 1.3010701E+01 1.9622572E+00
EXPONENTS  4.4453796E-01 1.2194962E-01 8.0000000E-01 8.0000000E-01 8.0000000E-01
EXPONENTS  1.3010701E+01 1.9622572E+00 4.4453796E-01 1.2194962E-01 8.0000000E-01
EXPONENTS  8.0000000E-01 8.0000000E-01
MO  1                     OCC NO =   1.98583617 ORB. ENERGY = 0.0000
  3.62549564E-02  6.15043425E-02  7.00194573E-02  9.80634060E-03 -1.32687558E-10
  3.83464349E-16  2.03420198E-18  3.62549558E-02  6.15043416E-02  7.00194562E-02
  9.80633646E-03  1.01964174E-10  1.58275248E-16  3.77167845E-17  3.62549564E-02
  6.15043424E-02  7.00194572E-02  9.80634056E-03  3.53245108E-10  4.13224562E-17
  3.05471718E-17  3.62549564E-02  6.15043424E-02  7.00194572E-02  9.80634056E-03
 -1.22439607E-10  2.94664262E-18  5.69093916E-17  3.62549558E-02  6.15043416E-02
  7.00194562E-02  9.80633646E-03  1.28875335E-10  2.48470839E-17  4.11404099E-17
  3.62549564E-02  6.15043425E-02  7.00194573E-02  9.80634060E-03  3.63528343E-10
  1.36597462E-16 -1.70166612E-17
MO  2                     OCC NO =   1.96178068 ORB. ENERGY = 0.0000
  4.79696637E-02  8.13776356E-02  9.26441556E-02  2.49354763E-02 -1.03442210E-02
 -3.47740987E-16  9.58548302E-17  8.12067605E-08  1.37762362E-07  1.56835199E-07
  4.22278132E-08 -2.06884993E-02 -1.76318560E-16 -1.79899360E-16 -4.79695826E-02
 -8.13774979E-02 -9.26439988E-02 -2.49354340E-02 -1.03442740E-02 -3.37529996E-17
 -3.51549636E-17 -4.79696638E-02 -8.13776357E-02 -9.26441557E-02 -2.49354763E-02
  1.03442210E-02 -1.25760971E-17 -1.00291952E-17 -8.12637135E-08 -1.37858979E-07
 -1.56945193E-07 -4.23065496E-08  2.06884993E-02 -9.05104023E-17  5.91781019E-17
  4.79695825E-02  8.13774978E-02  9.26439987E-02  2.49354341E-02  1.03442740E-02
 -9.55456112E-17 -3.53090537E-17
MO  3                     OCC NO =   1.96178067 ORB. ENERGY = 0.0000
 -2.76952043E-02 -4.69832404E-02 -5.34879467E-02 -1.43964504E-02 -1.79167804E-02
 -1.31238772E-16  6.97827279E-17 -5.53905503E-02 -9.39667212E-02 -1.06976167E-01
 -2.87929877E-02 -3.05768765E-08  9.50414382E-17 -2.26852227E-16 -2.76953450E-02
 -4.69834791E-02 -5.34882185E-02 -1.43965236E-02  1.79167498E-02  1.59152016E-18
  1.00269729E-16  2.76952043E-02  4.69832404E-02  5.34879467E-02  1.43964504E-02
  1.79167804E-02 -1.06594519E-17  1.71841300E-16  5.53905503E-02  9.39667212E-02
  1.06976167E-01  2.87929877E-02  3.05649173E-08 -2.26897620E-17  1.74594275E-16
  2.76953450E-02  4.69834791E-02  5.34882184E-02  1.43965236E-02 -1.79167498E-02
  9.81177248E-17 -1.02896741E-16
MO  4                     OCC NO =   0.04047087 ORB. ENERGY = 0.0000
 -5.11765448E-02 -8.68179155E-02 -9.88376280E-02 -3.20891755E-02  4.46324837E-02
  9.51843299E-17  1.54505137E-16  1.02352077E-01  1.73634114E-01  1.97673301E-01
  6.41776647E-02  3.08725731E-07 -2.46892491E-16  5.48794542E-17 -5.11754958E-02
 -8.68161359E-02 -9.88356021E-02 -3.20885135E-02 -4.46327923E-02 -2.10964079E-17
 -5.72353568E-16 -5.11765450E-02 -8.68179158E-02 -9.88376283E-02 -3.20891754E-02
  4.46324836E-02  9.82793396E-17 -6.80613680E-17  1.02352077E-01  1.73634114E-01
  1.97673301E-01  6.41776647E-02  3.08673998E-07 -6.07425037E-19  9.51416578E-17
 -5.11754957E-02 -8.68161357E-02 -9.88356018E-02 -3.20885136E-02 -4.46327924E-02
 -6.31603252E-17 -1.03593678E-16
MO  5                     OCC NO =   0.04047087 ORB. ENERGY = 0.0000
  8.86391847E-02  1.50371020E-01  1.71189493E-01  5.55793058E-02  2.57689294E-02
 -1.89109300E-16 -3.84384555E-17  6.05719888E-07  1.02756718E-06  1.16983116E-06
  3.82412609E-07 -5.15373397E-02 -1.20036130E-16 -1.19684470E-16 -8.86397905E-02
 -1.50372048E-01 -1.71190663E-01 -5.55796884E-02  2.57683946E-02 -8.97364148E-17
 -1.95141032E-16  8.86391848E-02  1.50371020E-01  1.71189493E-01  5.55793063E-02
  2.57689293E-02 -4.23128387E-17  2.50633499E-16  6.05757969E-07  1.02763179E-06
  1.16990471E-06  3.81895227E-07 -5.15373397E-02 -4.46678811E-17  5.72702280E-17
 -8.86397905E-02 -1.50372048E-01 -1.71190663E-01 -5.55796880E-02  2.57683947E-02
 -1.16648368E-16 -5.85895224E-17
MO  6                     OCC NO =   0.00966074 ORB. ENERGY = 0.0000
 -1.18962098E-01 -2.01812010E-01 -2.29752353E-01 -1.10929919E-01 -2.20214509E-09
 -2.32061083E-16 -5.86624962E-17  1.18962093E-01  2.01812002E-01  2.29752344E-01
  1.10929923E-01  1.15615065E-08 -9.76898221E-17  1.61486617E-17 -1.18962099E-01
 -2.01812011E-01 -2.29752354E-01 -1.10929919E-01 -1.99812985E-08 -1.56653453E-16
 -1.38756705E-16  1.18962099E-01  2.01812011E-01  2.29752354E-01  1.10929919E-01
  1.44052364E-09 -8.75479258E-17  2.08669693E-16 -1.18962093E-01 -2.01812002E-01
 -2.29752344E-01 -1.10929923E-01 -9.86160827E-09 -3.01234176E-17 -1.00051444E-16
  1.18962098E-01  2.01812010E-01  2.29752353E-01  1.10929919E-01  1.92196778E-08
  4.18402425E-17 -4.56650956E-17
END DATA
ALDET
From PySCF
CANMO 1
  3.62549582E-02  6.15043456E-02  7.00194608E-02  9.80634153E-03 -5.56737411E-10
  3.83464336E-16  2.03420524E-18  3.62549557E-02  6.15043414E-02  7.00194560E-02
  9.80633639E-03 -6.39780479E-10  1.58275242E-16  3.77167780E-17  3.62549547E-02
  6.15043396E-02  7.00194540E-02  9.80633971E-03  3.55525195E-11  4.13224550E-17
  3.05471712E-17  3.62549547E-02  6.15043396E-02  7.00194540E-02  9.80633971E-03
  1.95252799E-10  2.94664205E-18  5.69093913E-17  3.62549557E-02  6.15043414E-02
  7.00194560E-02  9.80633639E-03  8.70617929E-10  2.48470807E-17  4.11404119E-17
  3.62549582E-02  6.15043456E-02  7.00194608E-02  9.80634153E-03  7.87580436E-10
  1.36597458E-16 -1.70166623E-17
CANMO 2
  4.79696151E-02  8.13775530E-02  9.26440616E-02  2.49354516E-02 -1.03442556E-02
 -3.47741242E-16  9.58549483E-17 -2.50946929E-08 -4.25716300E-08 -4.84655604E-08
 -1.32551776E-08 -2.06884993E-02 -1.76318382E-16 -1.79899773E-16 -4.79696312E-02
 -8.13775804E-02 -9.26440928E-02 -2.49354587E-02 -1.03442394E-02 -3.37529971E-17
 -3.51547552E-17 -4.79696126E-02 -8.13775488E-02 -9.26440568E-02 -2.49354491E-02
  1.03442511E-02 -1.25761214E-17 -1.00288840E-17  1.21832242E-08  2.06681035E-08
  2.35295482E-08  6.04320411E-09  2.06884993E-02 -9.05104441E-17  5.91784105E-17
  4.79696337E-02  8.13775846E-02  9.26440976E-02  2.49354613E-02  1.03442439E-02
 -9.55454360E-17 -3.53092335E-17
CANMO 3
 -2.76952876E-02 -4.69833817E-02 -5.34881076E-02 -1.43964922E-02 -1.79167620E-02
 -1.31238136E-16  6.97825574E-17 -5.53905543E-02 -9.39667279E-02 -1.06976175E-01
 -2.87929914E-02  7.18707025E-09  9.50417604E-17 -2.26851902E-16 -2.76952538E-02
 -4.69833243E-02 -5.34880422E-02 -1.43964745E-02  1.79167683E-02  1.59158704E-18
  1.00269798E-16  2.76952861E-02  4.69833791E-02  5.34881046E-02  1.43964912E-02
  1.79167615E-02 -1.06594259E-17  1.71841309E-16  5.53905543E-02  9.39667279E-02
  1.06976175E-01  2.87929914E-02 -6.27762518E-09 -2.26895974E-17  1.74594171E-16
  2.76952553E-02  4.69833270E-02  5.34880453E-02  1.43964755E-02 -1.79167687E-02
  9.81178967E-17 -1.02896675E-16
CANMO 4
 -5.11759157E-02 -8.68168482E-02 -9.88364129E-02 -3.20887813E-02  4.46326654E-02
  9.51829758E-17  1.54504870E-16  1.02352077E-01  1.73634114E-01  1.97673301E-01
  6.41776647E-02 -5.67001377E-08 -2.46893349E-16  5.48785990E-17 -5.11761249E-02
 -8.68172031E-02 -9.88368170E-02 -3.20889077E-02 -4.46326106E-02 -2.10970440E-17
 -5.72354950E-16 -5.11759206E-02 -8.68168566E-02 -9.88364225E-02 -3.20887837E-02
  4.46326663E-02  9.82790398E-17 -6.80595964E-17  1.02352077E-01  1.73634114E-01
  1.97673301E-01  6.41776647E-02 -5.46790557E-08 -6.07745361E-19  9.51420658E-17
 -5.11761199E-02 -8.68171947E-02 -9.88368074E-02 -3.20889053E-02 -4.46326097E-02
 -6.31611546E-17 -1.03594094E-16
CANMO 5
  8.86395507E-02  1.50371641E-01  1.71190200E-01  5.55795367E-02  2.57686137E-02
 -1.89109965E-16 -3.84395451E-17 -1.22859942E-07 -2.08424467E-07 -2.37280287E-07
 -7.57231157E-08 -5.15373397E-02 -1.20034380E-16 -1.19684861E-16 -8.86394245E-02
 -1.50371427E-01 -1.71189956E-01 -5.55794575E-02  2.57687104E-02 -8.97362598E-17
 -1.95136980E-16  8.86395424E-02  1.50371627E-01  1.71190184E-01  5.55795291E-02
  2.57686139E-02 -4.23135304E-17  2.50633974E-16 -1.13001880E-07 -1.91700860E-07
 -2.18241341E-07 -6.74922079E-08 -5.15373397E-02 -4.46678759E-17  5.72695605E-17
 -8.86394328E-02 -1.50371441E-01 -1.71189972E-01 -5.55794651E-02  2.57687102E-02
 -1.16647922E-16 -5.85887891E-17
CANMO 6
 -1.18962096E-01 -2.01812006E-01 -2.29752349E-01 -1.10929918E-01 -1.84213932E-09
 -2.32061094E-16 -5.86624953E-17  1.18962091E-01  2.01811999E-01  2.29752340E-01
  1.10929922E-01  9.64888701E-09 -9.76898234E-17  1.61486497E-17 -1.18962103E-01
 -2.01812018E-01 -2.29752362E-01 -1.10929922E-01 -1.84286842E-08 -1.56653456E-16
 -1.38756709E-16  1.18962103E-01  2.01812018E-01  2.29752362E-01  1.10929922E-01
  2.99313505E-09 -8.75479277E-17  2.08669708E-16 -1.18962091E-01 -2.01811999E-01
 -2.29752340E-01 -1.10929922E-01 -1.17742289E-08 -3.01234200E-17 -1.00051436E-16
  1.18962096E-01  2.01812006E-01  2.29752349E-01  1.10929918E-01  1.95796852E-08
  4.18402414E-17 -4.56651012E-17
END DATA
NELACTIVE, NDETS, NORBCORE, NORBACTIVE
     6   88     0     6
COEFFICIENT/ OCCUPIED ACTIVE SPIN ORBITALS
 -9.7744850446E-01   1   2   3  -1  -2  -3
  8.4480397143E-02   1   2   4  -1  -2  -4
  8.4480384322E-02   1   3   5  -1  -3  -5
  6.5149519435E-02   1   2   3  -1  -4  -5
  6.5149519435E-02   1   4   5  -1  -2  -3
 -5.1839193527E-02   1   3   4  -1  -2  -5
 -5.1839193527E-02   1   2   5  -1  -3  -4
  4.5951457793E-02   1   2   5  -1  -2  -5
  4.5951447441E-02   1   3   4  -1  -3  -4
  3.7265675115E-02   2   3   5  -2  -3  -5
  3.7265672712E-02   2   3   4  -2  -3  -4
 -3.4170898729E-02   2   3   4  -1  -2  -6
 -3.4170898729E-02   1   2   6  -2  -3  -4
  3.4170898495E-02   1   3   6  -2  -3  -5
  3.4170898495E-02   2   3   5  -1  -3  -6
  2.2949340666E-02   1   3   5  -2  -3  -6
  2.2949340666E-02   2   3   6  -1  -3  -5
 -2.2949339092E-02   1   2   4  -2  -3  -6
 -2.2949339092E-02   2   3   6  -1  -2  -4
  1.9159543509E-02   2   3   6  -2  -3  -6
  1.7344010788E-02   1   3   6  -1  -3  -6
  1.7344008060E-02   1   2   6  -1  -2  -6
 -1.6385129878E-02   1   4   5  -1  -4  -5
  1.3310283615E-02   1   3   5  -1  -2  -4
  1.3310283615E-02   1   2   4  -1  -3  -5
  1.1221560961E-02   1   2   3  -2  -4  -6
  1.1221560961E-02   2   4   6  -1  -2  -3
 -1.1221559249E-02   3   5   6  -1  -2  -3
 -1.1221559249E-02   1   2   3  -3  -5  -6
 -5.3132200213E-03   2   4   5  -2  -4  -5
 -5.3132187084E-03   3   4   5  -3  -4  -5
 -5.2095980354E-03   2   4   5  -1  -4  -6
 -5.2095980354E-03   1   4   6  -2  -4  -5
  5.2095977811E-03   3   4   5  -1  -5  -6
  5.2095977811E-03   1   5   6  -3  -4  -5
  4.6057136105E-03   1   2   5  -2  -4  -5
  4.6057136105E-03   2   4   5  -1  -2  -5
 -4.6057124293E-03   3   4   5  -1  -3  -5
 -4.6057124293E-03   1   3   5  -3  -4  -5
 -4.6057121606E-03   1   2   4  -3  -4  -5
 -4.6057121606E-03   3   4   5  -1  -2  -4
 -4.6057107273E-03   1   3   4  -2  -4  -5
 -4.6057107273E-03   2   4   5  -1  -3  -4
 -4.1669032209E-03   3   5   6  -3  -5  -6
 -4.1669026872E-03   2   4   6  -2  -4  -6
 -3.5509737375E-03   1   5   6  -1  -3  -5
 -3.5509737375E-03   1   3   5  -1  -5  -6
 -3.5509720605E-03   1   2   4  -1  -5  -6
 -3.5509720605E-03   1   5   6  -1  -2  -4
  3.5509698466E-03   1   4   6  -1  -3  -4
  3.5509698466E-03   1   3   4  -1  -4  -6
 -3.5509687676E-03   1   4   6  -1  -2  -5
 -3.5509687676E-03   1   2   5  -1  -4  -6
 -3.0693903310E-03   2   4   6  -1  -4  -5
 -3.0693903310E-03   1   4   5  -2  -4  -6
  3.0693895670E-03   1   4   5  -3  -5  -6
  3.0693895670E-03   3   5   6  -1  -4  -5
 -2.4103626692E-03   1   4   6  -1  -4  -6
 -2.4103619950E-03   1   5   6  -1  -5  -6
  2.3379696530E-03   3   4   6  -2  -5  -6
  2.3379696530E-03   2   5   6  -3  -4  -6
 -2.1402077786E-03   4   5   6  -1  -3  -5
 -2.1402077786E-03   1   3   5  -4  -5  -6
  2.1402073021E-03   4   5   6  -1  -2  -4
  2.1402073021E-03   1   2   4  -4  -5  -6
 -1.8713791833E-03   2   3   6  -4  -5  -6
 -1.8713791833E-03   4   5   6  -2  -3  -6
  1.3683896683E-03   1   3   6  -3  -4  -6
  1.3683896683E-03   3   4   6  -1  -3  -6
 -1.3683883827E-03   2   5   6  -1  -3  -6
 -1.3683883827E-03   1   3   6  -2  -5  -6
 -1.3683882799E-03   3   5   6  -1  -2  -6
 -1.3683882799E-03   1   2   6  -3  -5  -6
 -1.3683874106E-03   1   2   6  -2  -4  -6
 -1.3683874106E-03   2   4   6  -1  -2  -6
 -1.3623457795E-03   2   5   6  -2  -5  -6
 -1.3623455640E-03   3   4   6  -3  -4  -6
  1.0397589064E-03   4   5   6  -4  -5  -6
 -9.9357706176E-04   2   3   4  -2  -4  -6
 -9.9357706176E-04   2   4   6  -2  -3  -4
  9.9357512462E-04   2   5   6  -2  -3  -5
  9.9357512462E-04   2   3   5  -2  -5  -6
 -9.9357478799E-04   3   5   6  -2  -3  -4
 -9.9357478799E-04   2   3   4  -3  -5  -6
 -9.9357396179E-04   2   3   5  -3  -4  -6
 -9.9357396179E-04   3   4   6  -2  -3  -5
  4.6658747151E-04   3   5   6  -2  -4  -6
  4.6658747151E-04   2   4   6  -3  -5  -6
