From PySCF
GAUSSIAN              2 MOL ORBITALS     14 PRIMITIVES        2 NUCLEI
  H    1    (CENTRE  1)   0.00000000  0.00000000  0.00000000  CHARGE = 1.0
  H    2    (CENTRE  2)   1.88972612  0.00000000  0.00000000  CHARGE = 1.0
CENTRE ASSIGNMENTS    1  1  1  1  1  1  1  2  2  2  2  2  2  2
TYPE ASSIGNMENTS      1  1  1  1  2  3  4  1  1  1  1  2  3  4
EXPONENTS  1.3010701E+01 1.9622572E+00 4.4453796E-01 1.2194962E-01 8.0000000E-01
EXPONENTS  8.0000000E-01 8.0000000E-01 1.3010701E+01 1.9622572E+00 4.4453796E-01
EXPONENTS  1.2194962E-01 8.0000000E-01 8.0000000E-01 8.0000000E-01
MO  1                     OCC NO =   1.99366308 ORB. ENERGY = 0.0000
 -6.68443692E-02 -1.13397433E-01 -1.29097010E-01 -1.41865763E-02  7.01174990E-14
 -1.44622143E-15  3.65577651E-14 -6.68443692E-02 -1.13397433E-01 -1.29097010E-01
 -1.41865763E-02  6.23063879E-14 -1.41003047E-15  3.61262906E-14
MO  2                     OCC NO =   0.00633692 ORB. ENERGY = 0.0000
 -2.21359225E-01 -3.75522547E-01 -4.27512658E-01  9.60855897E-01 -1.49249823E-13
 -3.92934288E-15  5.28389761E-14  2.21359225E-01  3.75522547E-01  4.27512658E-01
 -9.60855897E-01 -2.53422784E-13  6.28997058E-16 -6.03022053E-14
END DATA
ALDET
From PySCF
CANMO 1
 -6.68443692E-02 -1.13397433E-01 -1.29097010E-01 -1.41865763E-02  7.01174990E-14
 -1.44622143E-15  3.65577651E-14 -6.68443692E-02 -1.13397433E-01 -1.29097010E-01
 -1.41865763E-02  6.23063879E-14 -1.41003047E-15  3.61262906E-14
CANMO 2
 -2.21359225E-01 -3.75522547E-01 -4.27512658E-01  9.60855897E-01 -1.49249823E-13
 -3.92934288E-15  5.28389761E-14  2.21359225E-01  3.75522547E-01  4.27512658E-01
 -9.60855897E-01 -2.53422784E-13  6.28997058E-16 -6.03022053E-14
END DATA
NELACTIVE, NDETS, NORBCORE, NORBACTIVE
     2     4     0     2
COEFFICIENT/ OCCUPIED ACTIVE SPIN ORBITALS
  9.9841451356E-01   1  -1
 -5.6289067383E-02   2  -2
The purged number of dets is : 2
